# vtk DataFile Version 3.0
Isobutane-style scalar field
ASCII
DATASET STRUCTURED_POINTS
DIMENSIONS 30 30 30
ORIGIN -1.2 -1.2 -1.2
SPACING 0.08275862068965512 0.08275862068965512 0.08275862068965512
POINT_DATA 27000
SCALARS scalars float 1
LOOKUP_TABLE default
-1.584000
-1.507291
-1.436062
-1.370312
-1.310040
-1.255249
-1.205936
-1.162102
-1.123748
-1.090873
-1.063477
-1.041560
-1.025122
-1.014164
-1.008685
-1.008685
-1.014164
-1.025122
-1.041560
-1.063477
-1.090873
-1.123748
-1.162102
-1.205936
-1.255249
-1.310040
-1.370312
-1.436062
-1.507291
-1.584000
-1.517222
-1.440514
-1.369284
-1.303534
-1.243263
-1.188471
-1.139158
-1.095325
-1.056970
-1.024095
-0.996699
-0.974782
-0.958345
-0.947386
-0.941907
-0.941907
-0.947386
-0.958345
-0.974782
-0.996699
-1.024095
-1.056970
-1.095325
-1.139158
-1.188471
-1.243263
-1.303534
-1.369284
-1.440514
-1.517222
-1.455924
-1.379215
-1.307986
-1.242235
-1.181964
-1.127172
-1.077860
-1.034026
-0.995672
-0.962797
-0.935401
-0.913484
-0.897046
-0.886088
-0.880609
-0.880609
-0.886088
-0.897046
-0.913484
-0.935401
-0.962797
-0.995672
-1.034026
-1.077860
-1.127172
-1.181964
-1.242235
-1.307986
-1.379215
-1.455924
-1.400105
-1.323396
-1.252166
-1.186416
-1.126145
-1.071353
-1.022040
-0.978207
-0.939853
-0.906977
-0.879581
-0.857665
-0.841227
-0.830269
-0.824790
-0.824790
-0.830269
-0.841227
-0.857665
-0.879581
-0.906977
-0.939853
-0.978207
-1.022040
-1.071353
-1.126145
-1.186416
-1.252166
-1.323396
-1.400105
-1.349765
-1.273056
-1.201826
-1.136076
-1.075805
-1.021013
-0.971700
-0.927867
-0.889512
-0.856637
-0.829241
-0.807325
-0.790887
-0.779929
-0.774449
-0.774449
-0.779929
-0.790887
-0.807325
-0.829241
-0.856637
-0.889512
-0.927867
-0.971700
-1.021013
-1.075805
-1.136076
-1.201826
-1.273056
-1.349765
-1.304904
-1.228195
-1.156966
-1.091215
-1.030944
-0.976152
-0.926839
-0.883006
-0.844652
-0.811776
-0.784380
-0.762464
-0.746026
-0.735068
-0.729589
-0.729589
-0.735068
-0.746026
-0.762464
-0.784380
-0.811776
-0.844652
-0.883006
-0.926839
-0.976152
-1.030944
-1.091215
-1.156966
-1.228195
-1.304904
-1.265522
-1.188813
-1.117584
-1.051834
-0.991562
-0.936771
-0.887458
-0.843624
-0.805270
-0.772395
-0.744999
-0.723082
-0.706644
-0.695686
-0.690207
-0.690207
-0.695686
-0.706644
-0.723082
-0.744999
-0.772395
-0.805270
-0.843624
-0.887458
-0.936771
-0.991562
-1.051834
-1.117584
-1.188813
-1.265522
-1.231620
-1.154911
-1.083681
-1.017931
-0.957660
-0.902868
-0.853555
-0.809722
-0.771367
-0.738492
-0.711096
-0.689180
-0.672742
-0.661784
-0.656304
-0.656304
-0.661784
-0.672742
-0.689180
-0.711096
-0.738492
-0.771367
-0.809722
-0.853555
-0.902868
-0.957660
-1.017931
-1.083681
-1.154911
-1.231620
-1.203196
-1.126488
-1.055258
-0.989508
-0.929237
-0.874445
-0.825132
-0.781298
-0.742944
-0.710069
-0.682673
-0.660756
-0.644319
-0.633360
-0.627881
-0.627881
-0.633360
-0.644319
-0.660756
-0.682673
-0.710069
-0.742944
-0.781298
-0.825132
-0.874445
-0.929237
-0.989508
-1.055258
-1.126488
-1.203196
-1.180252
-1.103543
-1.032314
-0.966564
-0.906293
-0.851501
-0.802188
-0.758354
-0.720000
-0.687125
-0.659729
-0.637812
-0.621375
-0.610416
-0.604937
-0.604937
-0.610416
-0.621375
-0.637812
-0.659729
-0.687125
-0.720000
-0.758354
-0.802188
-0.851501
-0.906293
-0.966564
-1.032314
-1.103543
-1.180252
-1.162787
-1.086078
-1.014849
-0.949099
-0.888828
-0.834036
-0.784723
-0.740889
-0.702535
-0.669660
-0.642264
-0.620347
-0.603910
-0.592951
-0.587472
-0.587472
-0.592951
-0.603910
-0.620347
-0.642264
-0.669660
-0.702535
-0.740889
-0.784723
-0.834036
-0.888828
-0.949099
-1.014849
-1.086078
-1.162787
-1.150801
-1.074093
-1.002863
-0.937113
-0.876842
-0.822050
-0.772737
-0.728904
-0.690549
-0.657674
-0.630278
-0.608361
-0.591924
-0.580966
-0.575486
-0.575486
-0.580966
-0.591924
-0.608361
-0.630278
-0.657674
-0.690549
-0.728904
-0.772737
-0.822050
-0.876842
-0.937113
-1.002863
-1.074093
-1.150801
-1.144295
-1.067586
-0.996357
-0.930606
-0.870335
-0.815543
-0.766231
-0.722397
-0.684043
-0.651168
-0.623772
-0.601855
-0.585417
-0.574459
-0.568980
-0.568980
-0.574459
-0.585417
-0.601855
-0.623772
-0.651168
-0.684043
-0.722397
-0.766231
-0.815543
-0.870335
-0.930606
-0.996357
-1.067586
-1.144295
-1.143268
-1.066559
-0.995329
-0.929579
-0.869308
-0.814516
-0.765203
-0.721370
-0.683015
-0.650140
-0.622744
-0.600828
-0.584390
-0.573432
-0.567952
-0.567952
-0.573432
-0.584390
-0.600828
-0.622744
-0.650140
-0.683015
-0.721370
-0.765203
-0.814516
-0.869308
-0.929579
-0.995329
-1.066559
-1.143268
-1.147719
-1.071011
-0.999781
-0.934031
-0.873760
-0.818968
-0.769655
-0.725822
-0.687467
-0.654592
-0.627196
-0.605279
-0.588842
-0.577883
-0.572404
-0.572404
-0.577883
-0.588842
-0.605279
-0.627196
-0.654592
-0.687467
-0.725822
-0.769655
-0.818968
-0.873760
-0.934031
-0.999781
-1.071011
-1.147719
-1.157650
-1.080942
-1.009712
-0.943962
-0.883691
-0.828899
-0.779586
-0.735753
-0.697398
-0.664523
-0.637127
-0.615210
-0.598773
-0.587815
-0.582335
-0.582335
-0.587815
-0.598773
-0.615210
-0.637127
-0.664523
-0.697398
-0.735753
-0.779586
-0.828899
-0.883691
-0.943962
-1.009712
-1.080942
-1.157650
-1.173061
-1.096352
-1.025122
-0.959372
-0.899101
-0.844309
-0.794996
-0.751163
-0.712809
-0.679933
-0.652537
-0.630621
-0.614183
-0.603225
-0.597746
-0.597746
-0.603225
-0.614183
-0.630621
-0.652537
-0.679933
-0.712809
-0.751163
-0.794996
-0.844309
-0.899101
-0.959372
-1.025122
-1.096352
-1.173061
-1.193950
-1.117241
-1.046012
-0.980262
-0.919990
-0.865199
-0.815886
-0.772052
-0.733698
-0.700823
-0.673427
-0.651510
-0.635073
-0.624114
-0.618635
-0.618635
-0.624114
-0.635073
-0.651510
-0.673427
-0.700823
-0.733698
-0.772052
-0.815886
-0.865199
-0.919990
-0.980262
-1.046012
-1.117241
-1.193950
-1.220319
-1.143610
-1.072380
-1.006630
-0.946359
-0.891567
-0.842254
-0.798421
-0.760067
-0.727191
-0.699795
-0.677879
-0.661441
-0.650483
-0.645004
-0.645004
-0.650483
-0.661441
-0.677879
-0.699795
-0.727191
-0.760067
-0.798421
-0.842254
-0.891567
-0.946359
-1.006630
-1.072380
-1.143610
-1.220319
-1.252166
-1.175458
-1.104228
-1.038478
-0.978207
-0.923415
-0.874102
-0.830269
-0.791914
-0.759039
-0.731643
-0.709727
-0.693289
-0.682331
-0.676851
-0.676851
-0.682331
-0.693289
-0.709727
-0.731643
-0.759039
-0.791914
-0.830269
-0.874102
-0.923415
-0.978207
-1.038478
-1.104228
-1.175458
-1.252166
-1.289493
-1.212785
-1.141555
-1.075805
-1.015534
-0.960742
-0.911429
-0.867596
-0.829241
-0.796366
-0.768970
-0.747054
-0.730616
-0.719658
-0.714178
-0.714178
-0.719658
-0.730616
-0.747054
-0.768970
-0.796366
-0.829241
-0.867596
-0.911429
-0.960742
-1.015534
-1.075805
-1.141555
-1.212785
-1.289493
-1.332300
-1.255591
-1.184361
-1.118611
-1.058340
-1.003548
-0.954235
-0.910402
-0.872048
-0.839172
-0.811776
-0.789860
-0.773422
-0.762464
-0.756985
-0.756985
-0.762464
-0.773422
-0.789860
-0.811776
-0.839172
-0.872048
-0.910402
-0.954235
-1.003548
-1.058340
-1.118611
-1.184361
-1.255591
-1.332300
-1.380585
-1.303876
-1.232647
-1.166897
-1.106625
-1.051834
-1.002521
-0.958687
-0.920333
-0.887458
-0.860062
-0.838145
-0.821707
-0.810749
-0.805270
-0.805270
-0.810749
-0.821707
-0.838145
-0.860062
-0.887458
-0.920333
-0.958687
-1.002521
-1.051834
-1.106625
-1.166897
-1.232647
-1.303876
-1.380585
-1.434350
-1.357641
-1.286411
-1.220661
-1.160390
-1.105598
-1.056285
-1.012452
-0.974098
-0.941222
-0.913826
-0.891910
-0.875472
-0.864514
-0.859034
-0.859034
-0.864514
-0.875472
-0.891910
-0.913826
-0.941222
-0.974098
-1.012452
-1.056285
-1.105598
-1.160390
-1.220661
-1.286411
-1.357641
-1.434350
-1.493593
-1.416885
-1.345655
-1.279905
-1.219634
-1.164842
-1.115529
-1.071696
-1.033341
-1.000466
-0.973070
-0.951153
-0.934716
-0.923757
-0.918278
-0.918278
-0.923757
-0.934716
-0.951153
-0.973070
-1.000466
-1.033341
-1.071696
-1.115529
-1.164842
-1.219634
-1.279905
-1.345655
-1.416885
-1.493593
-1.558316
-1.481608
-1.410378
-1.344628
-1.284357
-1.229565
-1.180252
-1.136419
-1.098064
-1.065189
-1.037793
-1.015876
-0.999439
-0.988480
-0.983001
-0.983001
-0.988480
-0.999439
-1.015876
-1.037793
-1.065189
-1.098064
-1.136419
-1.180252
-1.229565
-1.284357
-1.344628
-1.410378
-1.481608
-1.558316
-1.628518
-1.551810
-1.480580
-1.414830
-1.354559
-1.299767
-1.250454
-1.206621
-1.168266
-1.135391
-1.107995
-1.086078
-1.069641
-1.058683
-1.053203
-1.053203
-1.058683
-1.069641
-1.086078
-1.107995
-1.135391
-1.168266
-1.206621
-1.250454
-1.299767
-1.354559
-1.414830
-1.480580
-1.551810
-1.628518
-1.704200
-1.627491
-1.556262
-1.490511
-1.430240
-1.375448
-1.326136
-1.282302
-1.243948
-1.211073
-1.183677
-1.161760
-1.145322
-1.134364
-1.128885
-1.128885
-1.134364
-1.145322
-1.161760
-1.183677
-1.211073
-1.243948
-1.282302
-1.326136
-1.375448
-1.430240
-1.490511
-1.556262
-1.627491
-1.704200
-1.785360
-1.708652
-1.637422
-1.571672
-1.511401
-1.456609
-1.407296
-1.363463
-1.325108
-1.292233
-1.264837
-1.242920
-1.226483
-1.215524
-1.210045
-1.210045
-1.215524
-1.226483
-1.242920
-1.264837
-1.292233
-1.325108
-1.363463
-1.407296
-1.456609
-1.511401
-1.571672
-1.637422
-1.708652
-1.785360
-1.872000
-1.795291
-1.724062
-1.658312
-1.598040
-1.543249
-1.493936
-1.450102
-1.411748
-1.378873
-1.351477
-1.329560
-1.313122
-1.302164
-1.296685
-1.296685
-1.302164
-1.313122
-1.329560
-1.351477
-1.378873
-1.411748
-1.450102
-1.493936
-1.543249
-1.598040
-1.658312
-1.724062
-1.795291
-1.872000
-1.517222
-1.440514
-1.369284
-1.303534
-1.243263
-1.188471
-1.139158
-1.095325
-1.056970
-1.024095
-0.996699
-0.974782
-0.958345
-0.947386
-0.941907
-0.941907
-0.947386
-0.958345
-0.974782
-0.996699
-1.024095
-1.056970
-1.095325
-1.139158
-1.188471
-1.243263
-1.303534
-1.369284
-1.440514
-1.517222
-1.449760
-1.373051
-1.301822
-1.236071
-1.175800
-1.121008
-1.071696
-1.027862
-0.989508
-0.956633
-0.929237
-0.907320
-0.890882
-0.879924
-0.874445
-0.874445
-0.879924
-0.890882
-0.907320
-0.929237
-0.956633
-0.989508
-1.027862
-1.071696
-1.121008
-1.175800
-1.236071
-1.301822
-1.373051
-1.449760
-1.387776
-1.311068
-1.239838
-1.174088
-1.113817
-1.059025
-1.009712
-0.965879
-0.927524
-0.894649
-0.867253
-0.845337
-0.828899
-0.817941
-0.812461
-0.812461
-0.817941
-0.828899
-0.845337
-0.867253
-0.894649
-0.927524
-0.965879
-1.009712
-1.059025
-1.113817
-1.174088
-1.239838
-1.311068
-1.387776
-1.331272
-1.254564
-1.183334
-1.117584
-1.057313
-1.002521
-0.953208
-0.909375
-0.871020
-0.838145
-0.810749
-0.788832
-0.772395
-0.761436
-0.755957
-0.755957
-0.761436
-0.772395
-0.788832
-0.810749
-0.838145
-0.871020
-0.909375
-0.953208
-1.002521
-1.057313
-1.117584
-1.183334
-1.254564
-1.331272
-1.280247
-1.203539
-1.132309
-1.066559
-1.006288
-0.951496
-0.902183
-0.858350
-0.819995
-0.787120
-0.759724
-0.737807
-0.721370
-0.710411
-0.704932
-0.704932
-0.710411
-0.721370
-0.737807
-0.759724
-0.787120
-0.819995
-0.858350
-0.902183
-0.951496
-1.006288
-1.066559
-1.132309
-1.203539
-1.280247
-1.234702
-1.157993
-1.086763
-1.021013
-0.960742
-0.905950
-0.856637
-0.812804
-0.774449
-0.741574
-0.714178
-0.692262
-0.675824
-0.664866
-0.659386
-0.659386
-0.664866
-0.675824
-0.692262
-0.714178
-0.741574
-0.774449
-0.812804
-0.856637
-0.905950
-0.960742
-1.021013
-1.086763
-1.157993
-1.234702
-1.194635
-1.117926
-1.046697
-0.980946
-0.920675
-0.865883
-0.816571
-0.772737
-0.734383
-0.701508
-0.674112
-0.652195
-0.635757
-0.624799
-0.619320
-0.619320
-0.624799
-0.635757
-0.652195
-0.674112
-0.701508
-0.734383
-0.772737
-0.816571
-0.865883
-0.920675
-0.980946
-1.046697
-1.117926
-1.194635
-1.160048
-1.083339
-1.012109
-0.946359
-0.886088
-0.831296
-0.781983
-0.738150
-0.699795
-0.666920
-0.639524
-0.617607
-0.601170
-0.590212
-0.584732
-0.584732
-0.590212
-0.601170
-0.617608
-0.639524
-0.666920
-0.699795
-0.738150
-0.781983
-0.831296
-0.886088
-0.946359
-1.012109
-1.083339
-1.160048
-1.130939
-1.054231
-0.983001
-0.917251
-0.856980
-0.802188
-0.752875
-0.709042
-0.670687
-0.637812
-0.610416
-0.588499
-0.572062
-0.561103
-0.555624
-0.555624
-0.561103
-0.572062
-0.588499
-0.610416
-0.637812
-0.670687
-0.709042
-0.752875
-0.802188
-0.856980
-0.917251
-0.983001
-1.054231
-1.130939
-1.107310
-1.030602
-0.959372
-0.893622
-0.833351
-0.778559
-0.729246
-0.685413
-0.647058
-0.614183
-0.586787
-0.564870
-0.548433
-0.537474
-0.531995
-0.531995
-0.537474
-0.548433
-0.564870
-0.586787
-0.614183
-0.647058
-0.685413
-0.729246
-0.778559
-0.833351
-0.893622
-0.959372
-1.030602
-1.107310
-1.089161
-1.012452
-0.941222
-0.875472
-0.815201
-0.760409
-0.711096
-0.667263
-0.628908
-0.596033
-0.568637
-0.546720
-0.530283
-0.519325
-0.513845
-0.513845
-0.519325
-0.530283
-0.546721
-0.568637
-0.596033
-0.628908
-0.667263
-0.711096
-0.760409
-0.815201
-0.875472
-0.941222
-1.012452
-1.089161
-1.076490
-0.999781
-0.928552
-0.862801
-0.802530
-0.747738
-0.698426
-0.654592
-0.616238
-0.583363
-0.555967
-0.534050
-0.517612
-0.506654
-0.501175
-0.501175
-0.506654
-0.517612
-0.534050
-0.555967
-0.583363
-0.616238
-0.654592
-0.698426
-0.747738
-0.802530
-0.862801
-0.928552
-0.999781
-1.076490
-1.069298
-0.992590
-0.921360
-0.855610
-0.795339
-0.740547
-0.691234
-0.647401
-0.609046
-0.576171
-0.548775
-0.526858
-0.510421
-0.499463
-0.493983
-0.493983
-0.499463
-0.510421
-0.526859
-0.548775
-0.576171
-0.609046
-0.647401
-0.691234
-0.740547
-0.795339
-0.855610
-0.921360
-0.992590
-1.069298
-1.067586
-0.990878
-0.919648
-0.853898
-0.793627
-0.738835
-0.689522
-0.645688
-0.607334
-0.574459
-0.547063
-0.525146
-0.508709
-0.497750
-0.492271
-0.492271
-0.497750
-0.508709
-0.525146
-0.547063
-0.574459
-0.607334
-0.645688
-0.689522
-0.738835
-0.793627
-0.853898
-0.919648
-0.990878
-1.067586
-1.071353
-0.994644
-0.923415
-0.857665
-0.797394
-0.742602
-0.693289
-0.649455
-0.611101
-0.578226
-0.550830
-0.528913
-0.512476
-0.501517
-0.496038
-0.496038
-0.501517
-0.512476
-0.528913
-0.550830
-0.578226
-0.611101
-0.649455
-0.693289
-0.742602
-0.797394
-0.857665
-0.923415
-0.994644
-1.071353
-1.080599
-1.003891
-0.932661
-0.866911
-0.806640
-0.751848
-0.702535
-0.658702
-0.620347
-0.587472
-0.560076
-0.538159
-0.521722
-0.510763
-0.505284
-0.505284
-0.510763
-0.521722
-0.538159
-0.560076
-0.587472
-0.620347
-0.658702
-0.702535
-0.751848
-0.806640
-0.866911
-0.932661
-1.003891
-1.080599
-1.095325
-1.018616
-0.947386
-0.881636
-0.821365
-0.766573
-0.717260
-0.673427
-0.635073
-0.602197
-0.574801
-0.552885
-0.536447
-0.525489
-0.520010
-0.520010
-0.525489
-0.536447
-0.552885
-0.574801
-0.602197
-0.635073
-0.673427
-0.717260
-0.766573
-0.821365
-0.881636
-0.947386
-1.018616
-1.095325
-1.115529
-1.038820
-0.967591
-0.901841
-0.841570
-0.786778
-0.737465
-0.693631
-0.655277
-0.622402
-0.595006
-0.573089
-0.556652
-0.545693
-0.540214
-0.540214
-0.545693
-0.556652
-0.573089
-0.595006
-0.622402
-0.655277
-0.693631
-0.737465
-0.786778
-0.841570
-0.901841
-0.967591
-1.038820
-1.115529
-1.141213
-1.064504
-0.993275
-0.927524
-0.867253
-0.812461
-0.763149
-0.719315
-0.680961
-0.648086
-0.620690
-0.598773
-0.582335
-0.571377
-0.565898
-0.565898
-0.571377
-0.582335
-0.598773
-0.620690
-0.648086
-0.680961
-0.719315
-0.763149
-0.812461
-0.867253
-0.927524
-0.993275
-1.064504
-1.141213
-1.172376
-1.095667
-1.024438
-0.958687
-0.898416
-0.843624
-0.794312
-0.750478
-0.712124
-0.679248
-0.651852
-0.629936
-0.613498
-0.602540
-0.597061
-0.597061
-0.602540
-0.613498
-0.629936
-0.651853
-0.679249
-0.712124
-0.750478
-0.794312
-0.843624
-0.898416
-0.958687
-1.024438
-1.095667
-1.172376
-1.209018
-1.132309
-1.061080
-0.995329
-0.935058
-0.880266
-0.830954
-0.787120
-0.748766
-0.715890
-0.688494
-0.666578
-0.650140
-0.639182
-0.633703
-0.633703
-0.639182
-0.650140
-0.666578
-0.688495
-0.715891
-0.748766
-0.787120
-0.830954
-0.880266
-0.935058
-0.995329
-1.061080
-1.132309
-1.209018
-1.251139
-1.174430
-1.103201
-1.037451
-0.977180
-0.922388
-0.873075
-0.829241
-0.790887
-0.758012
-0.730616
-0.708699
-0.692261
-0.681303
-0.675824
-0.675824
-0.681303
-0.692262
-0.708699
-0.730616
-0.758012
-0.790887
-0.829241
-0.873075
-0.922388
-0.977180
-1.037451
-1.103201
-1.174430
-1.251139
-1.298740
-1.222031
-1.150801
-1.085051
-1.024780
-0.969988
-0.920675
-0.876842
-0.838487
-0.805612
-0.778216
-0.756299
-0.739862
-0.728904
-0.723424
-0.723424
-0.728904
-0.739862
-0.756300
-0.778216
-0.805612
-0.838488
-0.876842
-0.920675
-0.969988
-1.024780
-1.085051
-1.150801
-1.222031
-1.298740
-1.351819
-1.275111
-1.203881
-1.138131
-1.077860
-1.023068
-0.973755
-0.929922
-0.891567
-0.858692
-0.831296
-0.809379
-0.792942
-0.781983
-0.776504
-0.776504
-0.781983
-0.792942
-0.809379
-0.831296
-0.858692
-0.891567
-0.929922
-0.973755
-1.023068
-1.077860
-1.138131
-1.203881
-1.275111
-1.351819
-1.410378
-1.333669
-1.262440
-1.196690
-1.136419
-1.081627
-1.032314
-0.988480
-0.950126
-0.917251
-0.889855
-0.867938
-0.851501
-0.840542
-0.835063
-0.835063
-0.840542
-0.851501
-0.867938
-0.889855
-0.917251
-0.950126
-0.988480
-1.032314
-1.081627
-1.136419
-1.196690
-1.262440
-1.333669
-1.410378
-1.474416
-1.397707
-1.326478
-1.260728
-1.200457
-1.145665
-1.096352
-1.052518
-1.014164
-0.981289
-0.953893
-0.931976
-0.915539
-0.904580
-0.899101
-0.899101
-0.904580
-0.915539
-0.931976
-0.953893
-0.981289
-1.014164
-1.052518
-1.096352
-1.145665
-1.200457
-1.260728
-1.326478
-1.397707
-1.474416
-1.543933
-1.467225
-1.395995
-1.330245
-1.269974
-1.215182
-1.165869
-1.122036
-1.083681
-1.050806
-1.023410
-1.001493
-0.985056
-0.974098
-0.968618
-0.968618
-0.974098
-0.985056
-1.001493
-1.023410
-1.050806
-1.083681
-1.122036
-1.165869
-1.215182
-1.269974
-1.330245
-1.395995
-1.467225
-1.543933
-1.618930
-1.542221
-1.470992
-1.405241
-1.344970
-1.290178
-1.240866
-1.197032
-1.158678
-1.125803
-1.098407
-1.076490
-1.060052
-1.049094
-1.043615
-1.043615
-1.049094
-1.060052
-1.076490
-1.098407
-1.125803
-1.158678
-1.197032
-1.240866
-1.290178
-1.344970
-1.405241
-1.470992
-1.542221
-1.618930
-1.699405
-1.622697
-1.551467
-1.485717
-1.425446
-1.370654
-1.321341
-1.277508
-1.239153
-1.206278
-1.178882
-1.156966
-1.140528
-1.129570
-1.124090
-1.124090
-1.129570
-1.140528
-1.156966
-1.178882
-1.206278
-1.239153
-1.277508
-1.321341
-1.370654
-1.425446
-1.485717
-1.551467
-1.622697
-1.699405
-1.785360
-1.708652
-1.637422
-1.571672
-1.511401
-1.456609
-1.407296
-1.363463
-1.325108
-1.292233
-1.264837
-1.242920
-1.226483
-1.215524
-1.210045
-1.210045
-1.215524
-1.226483
-1.242920
-1.264837
-1.292233
-1.325108
-1.363463
-1.407296
-1.456609
-1.511401
-1.571672
-1.637422
-1.708652
-1.785360
-1.455924
-1.379215
-1.307986
-1.242235
-1.181964
-1.127172
-1.077860
-1.034026
-0.995672
-0.962797
-0.935401
-0.913484
-0.897046
-0.886088
-0.880609
-0.880609
-0.886088
-0.897046
-0.913484
-0.935401
-0.962797
-0.995672
-1.034026
-1.077860
-1.127172
-1.181964
-1.242235
-1.307986
-1.379215
-1.455924
-1.387776
-1.311068
-1.239838
-1.174088
-1.113817
-1.059025
-1.009712
-0.965879
-0.927524
-0.894649
-0.867253
-0.845337
-0.828899
-0.817941
-0.812461
-0.812461
-0.817941
-0.828899
-0.845337
-0.867253
-0.894649
-0.927524
-0.965879
-1.009712
-1.059025
-1.113817
-1.174088
-1.239838
-1.311068
-1.387776
-1.325108
-1.248400
-1.177170
-1.111420
-1.051149
-0.996357
-0.947044
-0.903210
-0.864856
-0.831981
-0.804585
-0.782668
-0.766231
-0.755272
-0.749793
-0.749793
-0.755272
-0.766231
-0.782668
-0.804585
-0.831981
-0.864856
-0.903210
-0.947044
-0.996357
-1.051149
-1.111420
-1.177170
-1.248400
-1.325108
-1.267919
-1.191210
-1.119981
-1.054231
-0.993960
-0.939168
-0.889855
-0.846021
-0.807667
-0.774792
-0.747396
-0.725479
-0.709042
-0.698083
-0.692604
-0.692604
-0.698083
-0.709042
-0.725479
-0.747396
-0.774792
-0.807667
-0.846021
-0.889855
-0.939168
-0.993960
-1.054231
-1.119981
-1.191210
-1.267919
-1.216209
-1.139501
-1.068271
-1.002521
-0.942250
-0.887458
-0.838145
-0.794311
-0.755957
-0.723082
-0.695686
-0.673769
-0.657332
-0.646373
-0.640894
-0.640894
-0.646373
-0.657332
-0.673769
-0.695686
-0.723082
-0.755957
-0.794312
-0.838145
-0.887458
-0.942250
-1.002521
-1.068271
-1.139501
-1.216209
-1.169979
-1.093270
-1.022040
-0.956290
-0.896019
-0.841227
-0.791914
-0.748081
-0.709726
-0.676850
-0.649454
-0.627538
-0.611100
-0.600142
-0.594663
-0.594663
-0.600143
-0.611101
-0.627539
-0.649455
-0.676851
-0.709727
-0.748081
-0.791914
-0.841227
-0.896019
-0.956290
-1.022040
-1.093270
-1.169979
-1.129227
-1.052518
-0.981289
-0.915539
-0.855268
-0.800476
-0.751163
-0.707329
-0.668974
-0.636098
-0.608701
-0.586784
-0.570348
-0.559390
-0.553912
-0.553912
-0.559391
-0.570350
-0.586787
-0.608704
-0.636100
-0.668975
-0.707329
-0.751163
-0.800476
-0.855268
-0.915539
-0.981289
-1.052518
-1.129227
-1.093955
-1.017246
-0.946017
-0.880266
-0.819995
-0.765203
-0.715890
-0.672056
-0.633701
-0.600824
-0.573426
-0.551510
-0.535074
-0.524117
-0.518639
-0.518640
-0.524119
-0.535077
-0.551515
-0.573432
-0.600828
-0.633703
-0.672057
-0.715891
-0.765203
-0.819995
-0.880266
-0.946017
-1.017246
-1.093955
-1.064162
-0.987453
-0.916224
-0.850473
-0.790202
-0.735410
-0.686097
-0.642263
-0.603907
-0.571029
-0.543632
-0.521715
-0.505280
-0.494324
-0.488846
-0.488846
-0.494326
-0.505284
-0.521722
-0.543639
-0.571034
-0.603910
-0.642264
-0.686098
-0.735410
-0.790202
-0.850473
-0.916224
-0.987453
-1.064162
-1.039848
-0.963139
-0.891910
-0.826159
-0.765888
-0.711096
-0.661783
-0.617949
-0.579593
-0.546716
-0.519318
-0.497402
-0.480967
-0.470010
-0.464532
-0.464533
-0.470012
-0.480970
-0.497408
-0.519325
-0.546721
-0.579596
-0.617950
-0.661784
-0.711096
-0.765888
-0.826159
-0.891910
-0.963139
-1.039848
-1.021013
-0.944304
-0.873075
-0.807325
-0.747054
-0.692262
-0.642949
-0.599115
-0.560759
-0.527883
-0.500486
-0.478569
-0.462133
-0.451176
-0.445698
-0.445698
-0.451177
-0.462136
-0.478573
-0.500490
-0.527886
-0.560761
-0.599115
-0.642949
-0.692262
-0.747054
-0.807325
-0.873075
-0.944304
-1.021013
-1.007658
-0.930949
-0.859719
-0.793969
-0.733698
-0.678906
-0.629593
-0.585760
-0.547405
-0.514529
-0.487133
-0.465216
-0.448779
-0.437821
-0.432342
-0.432342
-0.437822
-0.448780
-0.465218
-0.487134
-0.514530
-0.547405
-0.585760
-0.629593
-0.678906
-0.733698
-0.793969
-0.859719
-0.930949
-1.007658
-0.999781
-0.923073
-0.851843
-0.786093
-0.725822
-0.671030
-0.621717
-0.577883
-0.539529
-0.506654
-0.479257
-0.457341
-0.440903
-0.429945
-0.424466
-0.424466
-0.429945
-0.440904
-0.457341
-0.479258
-0.506654
-0.539529
-0.577883
-0.621717
-0.671030
-0.725822
-0.786093
-0.851843
-0.923073
-0.999781
-0.997384
-0.920675
-0.849446
-0.783696
-0.723424
-0.668633
-0.619320
-0.575486
-0.537132
-0.504257
-0.476861
-0.454944
-0.438506
-0.427548
-0.422069
-0.422069
-0.427548
-0.438507
-0.454944
-0.476861
-0.504257
-0.537132
-0.575486
-0.619320
-0.668633
-0.723424
-0.783696
-0.849446
-0.920675
-0.997384
-1.000466
-0.923757
-0.852528
-0.786778
-0.726507
-0.671715
-0.622402
-0.578568
-0.540214
-0.507339
-0.479943
-0.458026
-0.441589
-0.430630
-0.425151
-0.425151
-0.430630
-0.441589
-0.458026
-0.479943
-0.507339
-0.540214
-0.578568
-0.622402
-0.671715
-0.726507
-0.786778
-0.852528
-0.923757
-1.000466
-1.009027
-0.932319
-0.861089
-0.795339
-0.735068
-0.680276
-0.630963
-0.587130
-0.548775
-0.515900
-0.488504
-0.466587
-0.450150
-0.439191
-0.433712
-0.433712
-0.439191
-0.450150
-0.466587
-0.488504
-0.515900
-0.548775
-0.587130
-0.630963
-0.680276
-0.735068
-0.795339
-0.861089
-0.932319
-1.009027
-1.023068
-0.946359
-0.875130
-0.809379
-0.749108
-0.694316
-0.645004
-0.601170
-0.562816
-0.529940
-0.502544
-0.480628
-0.464190
-0.453232
-0.447753
-0.447753
-0.453232
-0.464190
-0.480628
-0.502545
-0.529941
-0.562816
-0.601170
-0.645004
-0.694316
-0.749108
-0.809379
-0.875130
-0.946359
-1.023068
-1.042587
-0.965879
-0.894649
-0.828899
-0.768628
-0.713836
-0.664523
-0.620690
-0.582335
-0.549460
-0.522064
-0.500147
-0.483710
-0.472751
-0.467272
-0.467272
-0.472751
-0.483710
-0.500147
-0.522064
-0.549460
-0.582335
-0.620690
-0.664523
-0.713836
-0.768628
-0.828899
-0.894649
-0.965879
-1.042587
-1.067586
-0.990878
-0.919648
-0.853898
-0.793627
-0.738835
-0.689522
-0.645688
-0.607333
-0.574458
-0.547061
-0.525145
-0.508708
-0.497750
-0.492271
-0.492271
-0.497750
-0.508709
-0.525146
-0.547063
-0.574459
-0.607334
-0.645688
-0.689522
-0.738835
-0.793627
-0.853898
-0.919648
-0.990878
-1.067586
-1.098064
-1.021356
-0.950126
-0.884376
-0.824105
-0.769313
-0.720000
-0.676166
-0.637810
-0.604934
-0.577537
-0.555621
-0.539184
-0.528227
-0.522749
-0.522749
-0.528228
-0.539187
-0.555624
-0.577541
-0.604937
-0.637812
-0.676166
-0.720000
-0.769313
-0.824105
-0.884376
-0.950126
-1.021356
-1.098064
-1.134021
-1.057313
-0.986083
-0.920333
-0.860062
-0.805270
-0.755957
-0.712123
-0.673767
-0.640889
-0.613492
-0.591576
-0.575140
-0.564184
-0.558706
-0.558706
-0.564185
-0.575144
-0.591581
-0.613498
-0.640894
-0.673769
-0.712124
-0.755957
-0.805270
-0.860062
-0.920333
-0.986083
-1.057313
-1.134021
-1.175458
-1.098749
-1.027520
-0.961769
-0.901498
-0.846706
-0.797393
-0.753559
-0.715203
-0.682325
-0.654928
-0.633012
-0.616576
-0.605620
-0.600142
-0.600143
-0.605622
-0.616580
-0.633018
-0.654935
-0.682331
-0.715206
-0.753560
-0.797394
-0.846706
-0.901498
-0.961769
-1.027520
-1.098749
-1.175458
-1.222373
-1.145665
-1.074435
-1.008685
-0.948414
-0.893622
-0.844309
-0.800475
-0.762119
-0.729242
-0.701845
-0.679928
-0.663493
-0.652536
-0.647058
-0.647058
-0.652537
-0.663496
-0.679933
-0.701850
-0.729246
-0.762121
-0.800476
-0.844309
-0.893622
-0.948414
-1.008685
-1.074435
-1.145665
-1.222373
-1.274768
-1.198059
-1.126830
-1.061080
-1.000809
-0.946017
-0.896704
-0.852870
-0.814515
-0.781639
-0.754242
-0.732325
-0.715889
-0.704931
-0.699453
-0.699453
-0.704932
-0.715891
-0.732328
-0.754245
-0.781641
-0.814516
-0.852870
-0.896704
-0.946017
-1.000809
-1.061080
-1.126830
-1.198059
-1.274768
-1.332642
-1.255933
-1.184704
-1.118954
-1.058683
-1.003891
-0.954578
-0.910744
-0.872390
-0.839514
-0.812118
-0.790201
-0.773764
-0.762806
-0.757327
-0.757327
-0.762806
-0.773765
-0.790202
-0.812119
-0.839515
-0.872390
-0.910744
-0.954578
-1.003891
-1.058683
-1.118954
-1.184704
-1.255933
-1.332642
-1.395995
-1.319287
-1.248057
-1.182307
-1.122036
-1.067244
-1.017931
-0.974097
-0.935743
-0.902868
-0.875472
-0.853555
-0.837118
-0.826159
-0.820680
-0.820680
-0.826159
-0.837118
-0.853555
-0.875472
-0.902868
-0.935743
-0.974098
-1.017931
-1.067244
-1.122036
-1.182307
-1.248057
-1.319287
-1.395995
-1.464828
-1.388119
-1.316889
-1.251139
-1.190868
-1.136076
-1.086763
-1.042930
-1.004575
-0.971700
-0.944304
-0.922388
-0.905950
-0.894992
-0.889512
-0.889512
-0.894992
-0.905950
-0.922388
-0.944304
-0.971700
-1.004576
-1.042930
-1.086763
-1.136076
-1.190868
-1.251139
-1.316889
-1.388119
-1.464828
-1.539139
-1.462430
-1.391201
-1.325451
-1.265180
-1.210388
-1.161075
-1.117241
-1.078887
-1.046012
-1.018616
-0.996699
-0.980262
-0.969303
-0.963824
-0.963824
-0.969303
-0.980262
-0.996699
-1.018616
-1.046012
-1.078887
-1.117241
-1.161075
-1.210388
-1.265180
-1.325451
-1.391201
-1.462430
-1.539139
-1.618930
-1.542221
-1.470992
-1.405241
-1.344970
-1.290178
-1.240866
-1.197032
-1.158678
-1.125803
-1.098407
-1.076490
-1.060052
-1.049094
-1.043615
-1.043615
-1.049094
-1.060052
-1.076490
-1.098407
-1.125803
-1.158678
-1.197032
-1.240866
-1.290178
-1.344970
-1.405241
-1.470992
-1.542221
-1.618930
-1.704200
-1.627491
-1.556262
-1.490511
-1.430240
-1.375448
-1.326136
-1.282302
-1.243948
-1.211073
-1.183677
-1.161760
-1.145322
-1.134364
-1.128885
-1.128885
-1.134364
-1.145322
-1.161760
-1.183677
-1.211073
-1.243948
-1.282302
-1.326136
-1.375448
-1.430240
-1.490511
-1.556262
-1.627491
-1.704200
-1.400105
-1.323396
-1.252166
-1.186416
-1.126145
-1.071353
-1.022040
-0.978207
-0.939853
-0.906977
-0.879581
-0.857665
-0.841227
-0.830269
-0.824790
-0.824790
-0.830269
-0.841227
-0.857665
-0.879581
-0.906977
-0.939853
-0.978207
-1.022040
-1.071353
-1.126145
-1.186416
-1.252166
-1.323396
-1.400105
-1.331272
-1.254564
-1.183334
-1.117584
-1.057313
-1.002521
-0.953208
-0.909375
-0.871020
-0.838145
-0.810749
-0.788832
-0.772395
-0.761436
-0.755957
-0.755957
-0.761436
-0.772395
-0.788832
-0.810749
-0.838145
-0.871020
-0.909375
-0.953208
-1.002521
-1.057313
-1.117584
-1.183334
-1.254564
-1.331272
-1.267919
-1.191210
-1.119981
-1.054231
-0.993960
-0.939168
-0.889855
-0.846021
-0.807667
-0.774792
-0.747396
-0.725479
-0.709042
-0.698083
-0.692604
-0.692604
-0.698083
-0.709042
-0.725479
-0.747396
-0.774792
-0.807667
-0.846021
-0.889855
-0.939168
-0.993960
-1.054231
-1.119981
-1.191210
-1.267919
-1.210045
-1.133337
-1.062107
-0.996357
-0.936086
-0.881294
-0.831981
-0.788147
-0.749793
-0.716917
-0.689521
-0.667604
-0.651167
-0.640209
-0.634730
-0.634730
-0.640209
-0.651168
-0.667605
-0.689522
-0.716918
-0.749793
-0.788147
-0.831981
-0.881294
-0.936086
-0.996357
-1.062107
-1.133337
-1.210045
-1.157650
-1.080942
-1.009712
-0.943962
-0.883691
-0.828899
-0.779586
-0.735752
-0.697396
-0.664519
-0.637122
-0.615205
-0.598769
-0.587813
-0.582335
-0.582335
-0.587814
-0.598773
-0.615210
-0.637127
-0.664523
-0.697398
-0.735753
-0.779586
-0.828899
-0.883691
-0.943962
-1.009712
-1.080942
-1.157650
-1.110735
-1.034026
-0.962797
-0.897046
-0.836775
-0.781983
-0.732670
-0.688834
-0.650474
-0.617592
-0.590191
-0.568276
-0.551845
-0.540893
-0.535418
-0.535419
-0.540899
-0.551857
-0.568295
-0.590212
-0.617608
-0.650483
-0.688837
-0.732671
-0.781983
-0.836775
-0.897046
-0.962797
-1.034026
-1.110735
-1.069298
-0.992590
-0.921360
-0.855610
-0.795339
-0.740547
-0.691232
-0.647392
-0.609025
-0.576131
-0.548723
-0.526811
-0.510389
-0.499448
-0.493978
-0.493982
-0.499462
-0.510421
-0.526858
-0.548775
-0.576171
-0.609046
-0.647401
-0.691234
-0.740547
-0.795339
-0.855610
-0.921360
-0.992590
-1.069298
-1.033341
-0.956633
-0.885403
-0.819653
-0.759382
-0.704589
-0.655273
-0.611428
-0.573050
-0.540142
-0.512725
-0.490815
-0.474407
-0.463479
-0.458017
-0.458024
-0.463505
-0.474464
-0.490901
-0.512818
-0.540214
-0.573089
-0.611444
-0.655277
-0.704590
-0.759382
-0.819653
-0.885403
-0.956633
-1.033341
-1.002863
-0.926155
-0.854925
-0.789175
-0.728904
-0.674111
-0.624794
-0.580946
-0.542561
-0.509644
-0.482220
-0.460313
-0.443913
-0.432993
-0.427537
-0.427546
-0.433027
-0.443986
-0.460423
-0.482340
-0.509736
-0.542611
-0.580966
-0.624799
-0.674112
-0.728904
-0.789175
-0.854925
-0.926155
-1.002863
-0.977864
-0.901156
-0.829926
-0.764176